LAMMPS data file via bulk2interface

8886 atoms
2952 bonds
5 atom types
1 bond types
-0.122871 32.622871 xlo xhi
-0.122871 32.622871 ylo yhi
-45.000000 45.000000 zlo zhi

Masses

   1    6.941  # Li
   2   18.198  # F DC
   3    9.012  # Be
   4   58.693  # Ni
   5    0.800  # F DP

Bond Coeffs

   1  1260.755258     0.000000  # F DC-DP

Atoms

    991       0    3   2.0000  1.516724e+00  3.480735e+00 -1.863549e+01  
   1128       0    2   1.8245  5.603175e+00  5.201746e+00 -1.873459e+01   # DC
   4425       0    1   1.0000  6.163578e+00  2.645183e+00 -2.975228e+01  
   3625       0    1   1.0000  6.090320e+00  3.521671e+00 -2.371517e+01  
     12       0    2   1.8245  7.347497e+00  6.563790e+00 -2.849748e+01   # DC
   1610       0    2   1.8245  2.548073e+00  5.859680e+00 -2.165883e+01   # DC
   1247       0    2   1.8245  6.824997e+00  4.282920e+00 -2.505012e+01   # DC
    136       0    3   2.0000  2.156960e-01  3.694373e+00 -2.960000e+01  
   1135       0    3   2.0000  2.750705e+00  7.239542e+00 -2.067721e+01  
    628       0    3   2.0000  6.287748e+00  5.845206e+00 -1.763152e+01  
   4447       0    1   1.0000  5.098181e+00  7.698862e+00 -2.300909e+01  
   1424       0    2   1.8245  9.501604e-01  3.750459e+00 -2.247760e+01   # DC
   3087       0    1   1.0000  8.069682e-01  5.238079e+00 -2.133450e+01  
   3799       0    1   1.0000  2.185861e+00  3.074021e+00 -2.334533e+01  
   1860       0    2   1.8245  6.957509e-01  4.222855e+00 -2.000167e+01   # DC
    124       0    3   2.0000  4.525370e+00  3.484960e+00 -2.786994e+01  
   1679       0    2   1.8245  2.222212e+00  5.441397e+00 -2.579815e+01   # DC
    871       0    3   2.0000  1.539417e+00  8.069862e-01 -2.496722e+01  
   3872       0    2   1.8245  3.482920e+00  5.599323e+00 -1.512796e+01   # DC
    510       0    2   1.8245  7.622479e+00  3.687911e+00 -2.973731e+01   # DC
   1286       0    2   1.8245  1.921347e+00  1.766223e+00 -2.380866e+01   # DC
   5158       0    2   1.8245  7.784316e+00  7.476005e+00 -1.661050e+01   # DC
   1865       0    2   1.8245  4.246121e+00  9.253780e-01 -1.916698e+01   # DC
   4749       0    1   1.0000  4.550809e+00  3.987546e-01 -2.622627e+01  
   2346       0    2   1.8245  4.414603e+00  4.153844e+00 -2.103312e+01   # DC
    770       0    2   1.8245  2.771247e+00  6.771564e+00 -1.725389e+01   # DC
   1329       0    2   1.8245  5.348824e+00  5.859420e+00 -1.642429e+01   # DC
     63       0    2   1.8245  3.796632e+00  4.775996e+00 -2.812727e+01   # DC
   1624       0    3   2.0000  3.868397e+00  5.057870e+00 -2.226876e+01  
   1460       0    2   1.8245  2.402913e+00  7.041779e-01 -2.605041e+01   # DC
   1766       0    2   1.8245  6.944540e+00  1.536392e+00 -2.565102e+01   # DC
   3651       0    1   1.0000  5.900056e-01  3.209796e-01 -1.979740e+01  
   3117       0    1   1.0000  7.569730e-01  9.269080e-02 -2.734179e+01  
   3941       0    1   1.0000  3.511728e+00  4.163409e+00 -2.555353e+01  
   2319       0    1   1.0000  7.792848e+00  1.164932e+00 -1.893688e+01  
   1473       0    2   1.8245  4.693057e+00  6.326951e+00 -2.249465e+01   # DC
   1012       0    3   2.0000  3.798315e+00  6.535602e+00 -1.628730e+01  
   4316       0    2   1.8245  6.925182e+00  7.195807e+00 -1.879401e+01   # DC
   3978       0    2   1.8245  4.155352e+00  7.169263e+00 -2.008357e+01   # DC
   3406       0    2   1.8245  3.730765e+00  2.927902e+00 -2.664850e+01   # DC
   4522       0    2   1.8245  6.748253e+00  6.804297e+00 -2.592616e+01   # DC
    732       0    2   1.8245  5.157381e+00  2.108096e+00 -2.363908e+01   # DC
   4009       0    1   1.0000  7.871743e+00  7.903202e+00 -2.206119e+01  
   2626       0    2   1.8245  4.887719e+00  7.700621e+00 -2.797249e+01   # DC
   1761       0    2   1.8245  1.661860e+00  3.524856e+00 -2.938155e+01   # DC
   4580       0    2   1.8245  4.425986e+00  2.547007e+00 -2.911902e+01   # DC
   5110       0    2   1.8245  6.206621e+00  2.416189e+00 -1.988677e+01   # DC
    343       0    3   2.0000  1.570094e+00  7.977802e+00 -2.852744e+01  
    232       0    3   2.0000  6.594712e+00  7.498515e+00 -2.761339e+01  
   2558       0    2   1.8245  7.513036e+00  6.136974e+00 -2.357760e+01   # DC
   2377       0    1   1.0000  4.103183e+00  6.336067e+00 -2.878604e+01  
    889       0    3   2.0000  7.476206e+00  5.735190e+00 -2.514259e+01  
   4364       0    2   1.8245  1.546162e+00  6.973231e+00 -1.970569e+01   # DC
   2796       0    2   1.8245  7.099737e+00  1.204532e+00 -2.849183e+01   # DC
   4742       0    2   1.8245  1.974973e+00  2.125873e+00 -1.915728e+01   # DC
   1708       0    3   2.0000  5.355051e+00  7.265584e-01 -2.308013e+01  
   3381       0    1   1.0000  1.977237e+00  6.876874e+00 -2.476078e+01  
   1442       0    2   1.8245  7.493428e+00  5.012711e+00 -1.694480e+01   # DC
   2567       0    1   1.0000  4.365350e+00  4.555577e+00 -1.946613e+01  
   3988       0    2   1.8245  2.860672e+00  4.426842e+00 -1.857104e+01   # DC
   5123       0    1   1.0000  6.987383e+00  3.565349e+00 -2.053400e+01  
   1034       0    2   1.8245  2.231669e-01  3.137297e+00 -1.791688e+01   # DC
   1033       0    3   2.0000  5.470816e+00  1.065705e+00 -1.995062e+01  
   3628       0    2   1.8245  2.386371e+00  6.731574e+00 -2.846019e+01   # DC
   4768       0    2   1.8245  6.028334e+00  3.335777e+00 -2.739783e+01   # DC
    215       0    2   1.8245  3.316270e+00  4.202056e+00 -2.349091e+01   # DC
   4280       0    2   1.8245  1.404812e+00  8.061728e+00 -3.002126e+01   # DC
   4881       0    1   1.0000  2.074638e+00  5.180991e+00 -2.776340e+01  
   3241       0    1   1.0000  7.128928e+00  5.682276e+00 -2.957923e+01  
   3077       0    1   1.0000  2.800458e+00  5.903661e-01 -1.900405e+01  
   2105       0    2   1.8245  7.480693e+00  2.144723e+00 -1.543705e+01   # DC
    840       0    2   1.8245  7.037511e+00  4.342712e-01 -2.339544e+01   # DC
   2865       0    1   1.0000  1.484432e+00  6.498278e+00 -1.817469e+01  
   2705       0    1   1.0000  7.764417e+00  1.565081e+00 -2.435593e+01  
   1072       0    3   2.0000  7.241979e+00  2.197312e+00 -2.722829e+01  
   4162       0    2   1.8245  7.982256e+00  5.885342e+00 -2.106605e+01   # DC
   3638       0    2   1.8245  7.470443e+00  3.881139e+00 -2.246408e+01   # DC
   3159       0    1   1.0000  5.454195e+00  7.949441e+00 -2.016995e+01  
   4053       0    1   1.0000  7.808223e+00  1.760317e-01 -2.938822e+01  
   4180       0    2   1.8245  5.222056e+00  7.492669e-01 -2.151376e+01   # DC
    684       0    2   1.8245  2.196890e-01  7.811919e+00 -2.776999e+01   # DC
   4917       0    1   1.0000  7.326969e-01  2.568279e+00 -2.106623e+01  
   4326       0    2   1.8245  1.938178e-01  1.535947e+00 -2.578101e+01   # DC
    675       0    2   1.8245  9.934821e-02  2.419437e-01 -1.830696e+01   # DC
   3318       0    2   1.8245  4.519437e+00  7.854591e+00 -1.584875e+01   # DC
   4141       0    1   1.0000  7.148466e+00  3.704058e+00 -1.534512e+01  
   1901       0    2   1.8245  5.626520e+00  6.382395e+00 -3.018344e+01   # DC
   2480       0    2   1.8245  1.603601e+00  7.105439e+00 -1.007028e+00   # DC
   4373       0    1   1.0000  4.112342e+00  7.607404e+00 -8.006997e+00  
     33       0    2   1.8245  3.286472e+00  3.844072e+00 -9.341331e+00   # DC
   3746       0    2   1.8245  7.793135e+00  4.951784e+00 -5.939825e-01   # DC
   3584       0    2   1.8245  4.059976e+00  2.387544e+00 -6.598638e+00   # DC
   4927       0    1   1.0000  6.761462e+00  8.773242e-01 -9.368817e+00  
   2709       0    1   1.0000  6.436785e+00  1.932554e+00 -2.713866e+00  
   1077       0    2   1.8245  1.272545e+00  1.834742e+00 -6.175421e+00   # DC
   4339       0    1   1.0000  4.238320e-01  3.014325e+00 -7.149783e+00  
   2325       0    1   1.0000  1.717733e+00  3.139552e+00 -9.751501e+00  
   2040       0    2   1.8245  7.501333e+00  7.532531e+00 -1.405576e+01   # DC
   1825       0    3   2.0000  5.223028e+00  2.681574e+00 -5.478273e+00  
   2275       0    1   1.0000  3.915853e+00  4.425691e+00 -5.937168e-01  
   2393       0    1   1.0000  3.009716e+00  2.513443e+00 -1.243588e+01  
   4125       0    1   1.0000  6.943909e+00  3.959067e+00 -1.093330e+01  
    857       0    2   1.8245  1.515600e+00  5.759200e+00 -3.244275e+00   # DC
    952       0    3   2.0000  4.361390e+00  2.995512e+00 -9.943708e+00  
   3770       0    2   1.8245  8.706967e-01  7.611275e+00 -5.442895e+00   # DC
   1960       0    3   2.0000  4.319971e+00  4.735215e+00 -1.401200e+01  
   4232       0    2   1.8245  7.915541e+00  6.634755e+00 -8.708877e+00   # DC
   2468       0    2   1.8245  4.374091e+00  2.112778e-01 -1.632822e+00   # DC
   4945       0    1   1.0000  2.516335e+00  1.495689e+00 -5.340488e+00  
   2019       0    2   1.8245  3.213454e+00  3.775216e+00 -1.344126e+01   # DC
   1094       0    2   1.8245  4.011905e+00  3.139029e+00 -1.893000e+00   # DC
    777       0    2   1.8245  5.314013e+00  1.941802e+00 -3.912430e+00   # DC
   3733       0    1   1.0000  4.224302e-01  1.305547e+00 -1.438542e+01  
   3497       0    1   1.0000  6.304931e+00  6.674329e+00 -1.259531e+01  
   3744       0    2   1.8245  4.315532e+00  6.161195e+00 -7.090435e+00   # DC
   1592       0    2   1.8245  3.314464e+00  2.255609e+00 -1.100290e+01   # DC
    755       0    2   1.8245  5.442003e+00  3.846449e+00 -1.070028e+01   # DC
   2243       0    1   1.0000  1.417443e-01  4.884105e-01 -6.175081e+00  
   3586       0    2   1.8245  5.979803e+00  5.007556e+00 -2.788317e+00   # DC
    607       0    3   2.0000  3.827782e+00  5.428450e+00 -5.750770e+00  
    297       0    2   1.8245  2.327881e+00  4.924330e+00 -6.240575e+00   # DC
   3361       0    1   1.0000  4.353861e+00  5.330700e+00 -1.150751e+01  
   3364       0    2   1.8245  7.363807e+00  3.158624e+00 -1.886944e+00   # DC
   2189       0    2   1.8245  2.222740e+00  1.429797e+00 -3.390875e+00   # DC
    664       0    3   2.0000  6.537458e+00  4.483119e+00 -1.374153e+00  
    599       0    2   1.8245  6.407220e+00  7.779256e+00 -2.717583e+00   # DC
   1520       0    2   1.8245  5.547472e+00  4.369801e+00 -2.336041e-01   # DC
   1254       0    2   1.8245  7.847930e-01  4.066150e+00 -8.387392e+00   # DC
   2947       0    1   1.0000  5.213464e+00  6.559662e+00 -2.896290e+00  
   2654       0    2   1.8245  1.026624e+00  3.227531e+00 -1.188030e+01   # DC
    992       0    2   1.8245  3.701814e+00  6.443820e+00 -4.687858e+00   # DC
   1238       0    2   1.8245  2.973164e+00  5.775269e+00 -1.115396e+01   # DC
   3405       0    1   1.0000  4.568659e+00  9.288369e-01 -8.121161e+00  
   1558       0    3   2.0000  2.261554e+00  7.155605e+00 -1.035469e+01  
   4090       0    2   1.8245  2.752372e+00  7.751159e+00 -9.090457e+00   # DC
   2021       0    2   1.8245  4.789617e+00  5.899224e+00 -1.292050e+01   # DC
   1668       0    2   1.8245  6.608895e+00  2.825713e+00 -6.164181e+00   # DC
    645       0    2   1.8245  3.775864e+00  5.737622e+00 -1.945671e+00   # DC
   1271       0    2   1.8245  2.021274e+00  9.045564e-01 -1.349620e+01   # DC
    875       0    2   1.8245  1.711278e-01  4.988895e+00 -1.376534e+01   # DC
   1089       0    2   1.8245  5.740541e+00  4.133471e+00 -1.430235e+01   # DC
   1441       0    3   2.0000  2.384074e+00  6.435195e+00 -2.340845e+00  
   2335       0    1   1.0000  2.608445e+00  4.569549e+00 -8.008709e+00  
   4883       0    1   1.0000  1.014996e+00  4.711606e+00 -1.266861e+01  
   2972       0    2   1.8245  3.281689e+00  2.010723e-01 -7.765158e+00   # DC
    421       0    3   2.0000  6.933380e+00  7.369943e+00 -9.891967e+00  
    561       0    2   1.8245  4.829488e+00  4.297355e+00 -5.002579e+00   # DC
     45       0    2   1.8245  2.593950e-01  1.655442e+00 -9.439078e+00   # DC
   3632       0    2   1.8245 -1.038944e-01  3.274776e-01 -3.051330e+00   # DC
    996       0    2   1.8245  5.237487e+00  1.747520e+00 -9.191714e+00   # DC
   4869       0    1   1.0000  1.191711e+00  6.102696e+00 -4.976231e+00  
   4837       0    1   1.0000  3.641378e+00  1.471855e+00 -2.527831e+00  
   4583       0    1   1.0000  4.416997e+00  3.956760e+00 -3.338440e+00  
   1586       0    2   1.8245  6.126644e+00  6.624113e+00 -1.098901e+01   # DC
    179       0    2   1.8245  7.476056e+00  7.983124e-01 -3.064055e+00   # DC
   2463       0    1   1.0000  3.368963e+00  8.003798e+00 -4.370274e+00  
   1843       0    3   2.0000  1.275284e+00  1.592300e-01 -3.405389e+00  
   4143       0    1   1.0000  4.801628e+00  2.111576e-01 -1.301519e-01  
   1422       0    2   1.8245  9.368646e-01  6.521940e+00 -9.991972e+00   # DC
   4311       0    1   1.0000  7.884269e+00  2.339974e+00 -6.770947e+00  
   4539       0    1   1.0000  7.916273e+00  1.260233e+00  9.115265e+00  
   2933       0    1   1.0000  7.635060e+00  4.100540e-01  1.243634e-01  
   4735       0    1   1.0000  6.500779e+00  6.190736e+00  1.257938e+01  
   2274       0    2   1.8245  7.528677e+00  1.771235e+00  1.377120e+01   # DC
   1411       0    3   2.0000  5.963468e+00  4.996773e+00  1.015527e+01  
   1050       0    2   1.8245  6.123726e+00  1.120952e+00  5.830840e-01   # DC
   2921       0    1   1.0000  7.008571e+00  7.842748e+00  5.666881e+00  
    143       0    2   1.8245  7.149426e+00  3.203684e+00  1.338207e+00   # DC
   4889       0    1   1.0000  1.360789e+00  5.701729e+00  1.456294e+01  
   4818       0    2   1.8245  3.185673e+00  6.912116e+00  4.325386e+00   # DC
   2492       0    2   1.8245  1.582595e+00  6.997255e+00  1.830884e+00   # DC
   1049       0    2   1.8245  1.070128e+00 -8.556128e-02  1.352573e+01   # DC
   4721       0    1   1.0000  3.372560e+00  5.563301e+00  1.020819e+01  
   2837       0    1   1.0000  3.586998e+00  2.276398e+00  1.080672e+01  
    525       0    2   1.8245  3.024914e+00  3.739251e+00  1.155950e+01   # DC
   1025       0    2   1.8245  2.377521e+00  3.762814e+00  6.466212e+00   # DC
   3222       0    2   1.8245  5.731071e+00  8.029033e-02  2.722109e+00   # DC
   4342       0    2   1.8245  2.866107e+00  4.788025e+00  8.197304e-01   # DC
    960       0    2   1.8245  6.535861e+00  1.875754e+00  9.378769e+00   # DC
     23       0    2   1.8245  5.165358e+00  2.440658e+00  2.880842e+00   # DC
   3808       0    2   1.8245  2.564259e+00  6.454463e+00  1.111467e+01   # DC
   3253       0    1   1.0000  4.402803e+00  4.675642e-01  3.724831e+00  
   1264       0    3   2.0000  3.738021e+00  7.378492e+00  5.697721e+00  
   2942       0    2   1.8245  7.076899e-01  1.000212e+00  1.123788e+01   # DC
   1691       0    2   1.8245  2.542926e+00  3.901068e+00  3.401052e+00   # DC
   1387       0    3   2.0000  1.867330e+00  3.824264e+00  1.266356e+01  
   3417       0    1   1.0000  6.204046e+00  5.115501e+00  1.589757e+00  
   4035       0    1   1.0000  3.934219e+00  4.497718e+00  4.063896e+00  
   2525       0    1   1.0000  7.819470e+00  4.248452e+00  1.221970e+01  
   4868       0    2   1.8245  7.379162e+00  6.001080e+00  4.362570e+00   # DC
   2156       0    2   1.8245  1.373886e+00  2.512248e+00  1.339515e+01   # DC
   3649       0    1   1.0000  5.449267e+00  2.591481e+00  5.967467e+00  
   2706       0    2   1.8245  4.363327e+00  1.411439e+00  9.454682e+00   # DC
   4771       0    1   1.0000  4.788570e+00  5.061718e+00  6.777093e+00  
   4382       0    2   1.8245  4.983776e+00  3.796303e+00  1.007632e+01   # DC
   3398       0    2   1.8245  1.435970e+00  1.293404e+00  5.313540e+00   # DC
   2029       0    3   2.0000  1.995732e+00  4.708572e+00  7.635395e+00  
    492       0    2   1.8245  5.874149e+00  5.666765e+00  8.640795e+00   # DC
    573       0    2   1.8245  6.191273e+00  6.903345e+00  5.721261e-01   # DC
   3228       0    2   1.8245  5.051102e+00  7.208518e+00  1.353953e+01   # DC
    781       0    3   2.0000  1.451825e+00  1.066127e+00  1.250493e+01  
   1223       0    2   1.8245  2.616031e+00  4.775984e+00  8.952582e+00   # DC
   4216       0    2   1.8245  5.260577e+00  7.738881e+00  5.200350e+00   # DC
   2720       0    2   1.8245  4.877919e+00  1.076745e+00  5.636790e+00   # DC
   4443       0    1   1.0000  6.652414e+00  6.208181e-01  1.444560e+01  
   2295       0    1   1.0000  6.691273e+00  1.384383e+00  1.167805e+01  
    701       0    2   1.8245  5.565343e-01  3.608525e+00  2.146341e+00   # DC
   4861       0    1   1.0000  7.648928e+00  6.675671e+00  2.375949e-02  
   3314       0    2   1.8245  7.446431e+00  4.755388e+00  1.047537e+01   # DC
   3205       0    1   1.0000  3.107473e+00  6.783917e+00  2.600477e+00  
   4703       0    1   1.0000  1.181249e+00  5.648641e+00  5.505763e-01  
   3931       0    1   1.0000  3.637942e+00  6.405933e+00  1.281343e+01  
   3360       0    2   1.8245  5.111745e-01  4.194099e+00  1.214477e+01   # DC
    659       0    2   1.8245  4.937019e+00  5.564420e+00  2.818778e+00   # DC
   1561       0    3   2.0000  2.459327e+00  4.291335e-01  1.690837e+00  
    956       0    2   1.8245  5.113481e+00  4.348516e+00  5.310341e+00   # DC
   4448       0    2   1.8245  7.364835e+00  7.782836e+00  8.957151e+00   # DC
   1468       0    3   2.0000  5.271710e+00  2.678962e+00  8.971691e+00  
   4812       0    2   1.8245  3.909756e+00  6.265320e+00  6.721237e+00   # DC
    540       0    2   1.8245  5.421065e+00  1.021848e+00  1.287446e+01   # DC
    170       0    2   1.8245  7.797910e+00  5.894495e+00  1.923186e+00   # DC
   2408       0    2   1.8245  2.964533e+00  2.087334e+00  1.462325e+00   # DC
    367       0    3   2.0000  2.251303e+00  3.344179e+00  1.984927e+00  
   3964       0    2   1.8245  2.656684e+00  5.170379e+00  1.352778e+01   # DC
   1692       0    2   1.8245  7.413666e+00  3.193475e+00  5.197256e+00   # DC
   3325       0    1   1.0000  7.010512e+00  4.735372e+00  5.129566e+00  
   1958       0    2   1.8245  9.364609e-01  1.286859e-01  1.313466e+00   # DC
   4822       0    2   1.8245  5.056689e+00  3.195842e+00  7.593946e+00   # DC
   3793       0    1   1.0000  2.002235e+00  2.245205e+00  6.436073e+00  
    783       0    2   1.8245  2.951056e+00  7.525437e-01  1.216975e+01   # DC
   1742       0    2   1.8245  5.419991e+00  6.140640e+00  1.112263e+01   # DC
   1800       0    2   1.8245  2.964756e+00  9.563157e-02  3.015963e+00   # DC
    982       0    3   2.0000  6.231559e+00  2.046634e+00  1.840159e+00  
   4471       0    1   1.0000  5.576534e+00  6.665326e+00  3.997348e+00  
   2396       0    2   1.8245  7.075572e-01  2.430946e+00  8.075377e+00   # DC
   2330       0    2   1.8245  6.721382e-01  5.379358e+00  7.142116e+00   # DC
   3258       0    2   1.8245  6.428641e+00  4.603674e+00  1.310231e+01   # DC
   2935       0    1   1.0000  3.993129e+00  4.964890e-01  1.356589e+01  
   1500       0    2   1.8245  7.909077e+00  7.740090e-01  4.323243e+00   # DC
   3100       0    2   1.8245  7.281136e+00  6.477501e+00  6.699891e+00   # DC
   2783       0    1   1.0000  5.799117e+00  3.943032e+00  1.432401e+01  
   2379       0    1   1.0000  1.186270e+00  7.424650e+00  1.141159e+01  
    751       0    3   2.0000  7.113754e+00  6.299567e+00  8.189163e+00  
   1773       0    2   1.8245  1.758795e+00  7.231564e+00  1.502247e+01   # DC
   3202       0    2   1.8245  5.640755e+00  6.351762e-01  2.600997e+01   # DC
   3242       0    2   1.8245  5.535075e+00  2.296687e+00  1.790035e+01   # DC
   3747       0    1   1.0000  7.102638e+00  5.430880e+00  2.718506e+01  
   1625       0    2   1.8245  7.406075e+00  1.016156e+00  2.395517e+01   # DC
   2922       0    2   1.8245  7.562541e+00  4.207550e+00  2.366029e+01   # DC
   3462       0    2   1.8245  4.046212e+00  4.501957e+00  2.955555e+01   # DC
   5147       0    1   1.0000  3.857207e+00  8.200344e-01  1.758633e+01  
   3132       0    2   1.8245  2.648917e+00  3.710556e+00  2.021687e+01   # DC
   4362       0    2   1.8245  4.056981e+00  2.830481e+00  2.609146e+01   # DC
   3847       0    1   1.0000  6.449541e+00  3.365698e-01  2.738272e+01  
   2996       0    2   1.8245  4.952725e-01  4.687375e+00  2.932361e+01   # DC
    999       0    2   1.8245  1.241745e-01  4.428955e+00  2.000576e+01   # DC
    471       0    2   1.8245  5.553324e-01  1.047541e+00  1.615787e+01   # DC
    137       0    2   1.8245  7.127749e+00  3.936286e+00  2.095293e+01   # DC
   3172       0    2   1.8245  4.941004e+00  4.924817e+00  1.814957e+01   # DC
   3860       0    2   1.8245  4.011894e-01  4.819918e+00  1.537667e+01   # DC
   3977       0    1   1.0000  5.086439e+00  4.284324e+00  2.615112e+01  
   3660       0    2   1.8245  7.396230e+00  4.641219e+00  2.826065e+01   # DC
   4598       0    2   1.8245  1.939251e+00  2.315060e+00  2.419985e+01   # DC
   1896       0    2   1.8245  4.370342e+00  5.477425e+00  2.531248e+01   # DC
   3861       0    1   1.0000  2.255053e+00  3.862137e+00  1.848613e+01  
   1096       0    3   2.0000  5.059243e+00  3.675342e+00  1.731577e+01  
   2209       0    3   2.0000  4.553641e+00  5.902126e+00  2.908093e+01  
    313       0    3   2.0000  1.182290e+00  3.813367e+00  2.107359e+01  
   1583       0    2   1.8245  5.685567e-01  3.479738e+00  1.757447e+01   # DC
   1030       0    3   2.0000  7.941717e+00  3.949084e+00  2.509620e+01  
   2084       0    2   1.8245  2.835556e+00  4.248962e-01  1.861577e+01   # DC
   2043       0    2   1.8245  3.928397e+00  3.670628e+00  2.310617e+01   # DC
   1378       0    3   2.0000  3.505297e+00  2.379107e+00  2.425608e+01  
   4253       0    1   1.0000  4.466099e+00  3.887336e+00  2.172366e+01  
   1939       0    3   2.0000  5.984139e+00  6.770741e-01  2.441489e+01  
   4537       0    1   1.0000  9.114664e-01  6.456923e+00  2.284800e+01  
   1794       0    2   1.8245  9.867363e-01  2.360821e+00  2.177244e+01   # DC
   2375       0    1   1.0000  5.257011e+00  5.776771e+00  2.383973e+01  
   4483       0    1   1.0000  3.270304e+00  2.975116e+00  3.002926e+01  
   2597       0    1   1.0000  3.525294e+00  7.812472e+00  2.750738e+01  
   4039       0    1   1.0000  6.537425e+00  1.918354e+00  2.066672e+01  
   2656       0    2   1.8245  2.694731e+00  1.956706e+00  2.871582e+01   # DC
   2452       0    2   1.8245  2.673451e+00  7.234424e+00  2.625716e+01   # DC
   4158       0    2   1.8245  5.978016e-01  7.133801e+00  2.816482e+01   # DC
   1964       0    2   1.8245  7.898184e+00  1.305367e+00  1.781373e+01   # DC
   4126       0    2   1.8245  3.296954e+00  3.880441e+00  1.737673e+01   # DC
   4904       0    2   1.8245  1.432703e+00  7.421713e+00  2.168388e+01   # DC
   2604       0    2   1.8245  4.342643e-01  4.977358e+00  2.603729e+01   # DC
   1929       0    2   1.8245  3.216236e+00  6.717417e+00  2.896177e+01   # DC
   2350       0    2   1.8245  5.327345e+00  6.338543e+00  2.768379e+01   # DC
    329       0    2   1.8245  5.700045e+00  5.559898e+00  2.232824e+01   # DC
   4312       0    2   1.8245  6.458734e+00  2.366382e+00  2.906404e+01   # DC
   3999       0    1   1.0000  7.162841e-01  6.971983e+00  2.635290e+01  
   3570       0    2   1.8245  7.652031e+00  7.151851e+00  2.729615e+01   # DC
   4140       0    2   1.8245  6.623640e+00  4.088959e+00  2.594518e+01   # DC
    496       0    3   2.0000  3.119512e+00  6.591733e+00  2.489963e+01  
    837       0    2   1.8245  5.551934e+00  3.893212e+00  1.588508e+01   # DC
   1967       0    2   1.8245  4.675001e+00  1.363078e+00  2.378012e+01   # DC
    405       0    2   1.8245  6.261375e+00  6.564694e+00  2.001512e+01   # DC
   3035       0    1   1.0000  4.871587e+00  6.633963e+00  1.823974e+01  
    251       0    2   1.8245  4.882621e+00  2.225167e+00  2.131136e+01   # DC
   1153       0    3   2.0000  6.399474e+00  1.041154e+00  1.744487e+01  
   4680       0    2   1.8245  2.811393e+00  9.511099e-02  2.126566e+01   # DC
    910       0    3   2.0000  5.432002e+00  7.021045e+00  2.129341e+01  
   2534       0    2   1.8245  6.464272e+00  3.746994e-01  2.096425e+01   # DC
   3657       0    1   1.0000  1.576496e+00  5.980009e+00  2.925485e+01  
   2448       0    2   1.8245  3.881442e+00  7.219991e+00  2.081050e+01   # DC
   4089       0    1   1.0000  7.521327e+00  5.055231e+00  2.236049e+01  
   4091       0    1   1.0000  3.668127e+00  2.041277e+00  2.744665e+01  
   4783       0    1   1.0000  9.916874e-01  3.357315e+00  2.363952e+01  
   1317       0    2   1.8245  1.851257e+00  6.092839e+00  2.412334e+01   # DC
   1585       0    3   2.0000  7.792115e+00  3.377020e+00  2.905855e+01  
   4244       0    2   1.8245  5.204254e-01  5.331345e-01  2.836198e+01   # DC
    109       0    3   2.0000  7.874741e+00  6.446554e+00  2.005269e+01  
   5079       0    1   1.0000  4.547619e+00  6.131748e-01  2.157280e+01  
    498       0    2   1.8245  3.862595e+00  7.611905e+00  2.397507e+01   # DC
   1204       0    3   2.0000  1.921177e+00  2.943209e-01  2.879745e+01  
   1521       0    2   1.8245  1.095990e+00  4.622163e+00  2.251345e+01   # DC
   5049       0    1   1.0000  1.526084e+00  7.440960e-01  2.235917e+01  
   3571       0    1   1.0000  5.976286e+00  7.679010e+00  2.757123e+01  
   1694       0    2   1.8245  6.041536e+00  1.102690e+00  1.595133e+01   # DC
   4712       0    2   1.8245  5.826057e+00 -4.339506e-02  1.826106e+01   # DC
   2857       0    1   1.0000  1.334741e+00  7.679573e-01  1.513733e+01  
   2262       0    2   1.8245  3.845832e+00  1.022465e+01 -2.589063e+01   # DC
    221       0    2   1.8245  4.305137e+00  1.403674e+01 -2.863926e+01   # DC
   3807       0    1   1.0000  4.465637e+00  1.401313e+01 -1.891755e+01  
   1258       0    3   2.0000  6.842212e+00  1.477650e+01 -1.742138e+01  
   1067       0    2   1.8245  1.821804e+00  1.404344e+01 -2.194950e+01   # DC
   1791       0    2   1.8245  1.841399e+00  1.503951e+01 -1.646653e+01   # DC
   3307       0    1   1.0000  6.921993e+00  1.293411e+01 -1.956574e+01  
   5093       0    1   1.0000  1.698575e+00  1.275826e+01 -2.576169e+01  
   3722       0    2   1.8245  3.879414e+00  9.935483e+00 -1.860012e+01   # DC
   3755       0    1   1.0000  4.106798e+00  9.138598e+00 -2.820865e+01  
   2954       0    2   1.8245  4.941890e+00  9.288591e+00 -2.346333e+01   # DC
    958       0    3   2.0000  9.829798e-01  1.258357e+01 -2.862208e+01  
    941       0    2   1.8245  4.568639e+00  1.109645e+01 -2.091668e+01   # DC
    404       0    2   1.8245  7.763998e+00  1.574814e+01 -2.580617e+01   # DC
   4770       0    2   1.8245  7.574203e+00  1.394699e+01 -1.615417e+01   # DC
   3635       0    1   1.0000  3.103178e+00  9.958049e+00 -2.186457e+01  
    990       0    2   1.8245  1.575476e+00  1.367841e+01 -2.968881e+01   # DC
   3071       0    1   1.0000  4.737367e+00  1.503705e+01 -2.104983e+01  
   4072       0    2   1.8245  7.754756e+00  1.093683e+01 -2.975007e+01   # DC
     70       0    3   2.0000  3.647555e+00  9.465535e+00 -2.455951e+01  
   1481       0    2   1.8245  3.403319e+00  1.245304e+01 -1.871024e+01   # DC
   3993       0    1   1.0000  6.510070e+00  9.822070e+00 -2.304945e+01  
   1920       0    2   1.8245  3.639447e-01  1.346377e+01 -2.754641e+01   # DC
   4046       0    2   1.8245  5.994559e+00  1.546699e+01 -2.383457e+01   # DC
    585       0    2   1.8245  6.324032e+00  8.266642e+00 -2.168645e+01   # DC
   1486       0    3   2.0000  1.330101e+00  1.382077e+01 -1.560803e+01  
   5164       0    2   1.8245  7.772739e+00  1.439025e+01 -1.876096e+01   # DC
   4485       0    1   1.0000  2.156479e+00  1.567972e+01 -2.089895e+01  
   1021       0    3   2.0000  7.150774e+00  1.445317e+01 -2.464593e+01  
   3031       0    1   1.0000  4.099779e+00  9.293740e+00 -1.698084e+01  
   4947       0    1   1.0000  1.179932e-02  1.406721e+01 -2.260614e+01  
    625       0    3   2.0000  2.363001e+00  1.281294e+01 -2.276552e+01  
   4925       0    1   1.0000  4.766631e+00  1.310147e+01 -2.459723e+01  
    501       0    2   1.8245  4.185331e+00  1.292380e+01 -2.327557e+01   # DC
   4507       0    1   1.0000  6.373526e+00  1.252523e+01 -2.696665e+01  
   4390       0    2   1.8245  6.685774e+00  1.165668e+01 -2.274837e+01   # DC
    935       0    2   1.8245  6.294715e+00  1.336823e+01 -2.559924e+01   # DC
   1787       0    2   1.8245  1.710740e+00  1.246818e+01 -2.406584e+01   # DC
   2842       0    2   1.8245  2.474901e+00  1.210939e+01 -2.796626e+01   # DC
    853       0    3   2.0000  4.436233e+00  1.110242e+01 -1.943920e+01  
   1659       0    2   1.8245  3.686363e+00  1.556224e+01 -2.501633e+01   # DC
   5048       0    2   1.8245  2.299199e+00  1.572315e+01 -2.788269e+01   # DC
   4052       0    2   1.8245  3.217581e-01  1.283097e+01 -1.617899e+01   # DC
    974       0    2   1.8245  2.273579e+00  9.292122e+00 -2.794159e+01   # DC
   2557       0    1   1.0000  2.652475e+00  1.476725e+01 -2.958483e+01  
    128       0    2   1.8245  5.450622e+00  1.353004e+01 -2.066953e+01   # DC
   3275       0    1   1.0000  7.226365e+00  1.090624e+01 -1.880593e+01  
   2823       0    1   1.0000  2.312776e+00  1.051726e+01 -2.717304e+01  
   2590       0    2   1.8245  5.204632e+00  1.480658e+01 -1.738132e+01   # DC
   2596       0    2   1.8245  6.693291e-01  1.090962e+01 -2.612053e+01   # DC
   1263       0    2   1.8245  6.964472e-01  1.294410e+01 -1.980222e+01   # DC
    208       0    3   2.0000  3.903967e+00  1.286880e+01 -2.754646e+01  
    186       0    2   1.8245  7.965042e+00  9.571451e+00 -1.806855e+01   # DC
    615       0    2   1.8245  6.842857e+00  1.305852e+01 -2.929169e+01   # DC
   1991       0    2   1.8245  4.299026e+00  1.060692e+01 -1.593953e+01   # DC
    233       0    2   1.8245  3.586771e+00  1.509944e+01 -1.970996e+01   # DC
   3505       0    1   1.0000  9.869380e-01  1.028186e+01 -2.444332e+01  
   1743       0    2   1.8245  3.971121e-01  1.144405e+01 -2.932190e+01   # DC
   1418       0    2   1.8245  1.317400e-01  8.331331e+00 -1.668624e+01   # DC
   2267       0    1   1.0000  2.413733e+00  1.169735e+01 -1.678222e+01  
   1718       0    2   1.8245  3.570200e+00  1.375384e+01 -2.624240e+01   # DC
   1487       0    2   1.8245  1.770467e+00  1.013155e+01 -1.660806e+01   # DC