LAMMPS data file via bulk2interface

7140 atoms
2772 bonds
8 atom types
3 bond types
0.009393 32.490607 xlo xhi
0.009393 32.490607 ylo yhi
-45.000000 45.000000 zlo zhi

Masses

   1   17.398  # F DC
   2    6.941  # Li
   3   22.189  # Na DC
   4   38.298  # K DC
   5   58.693  # Ni
   6    0.800  # F DP
   7    0.800  # Na DP
   8    0.800  # K DP

Bond Coeffs

   1  1260.755258     0.000000  # F DC-DP
   2  1260.755258     0.000000  # Na DC-DP
   3  1477.301745     0.000000  # K DC-DP

Atoms

   1847       0    2   1.0000  1.184488e+01  2.916545e+00 -2.820334e+01  
   1871       0    2   1.0000  2.894820e+00  4.917021e+00 -2.944260e+01  
    749       0    4   3.4894  8.291146e+00  7.820786e+00 -2.388143e+01   # DC
    785       0    4   3.4894  3.331030e+00  1.696654e+00 -2.696206e+01   # DC
   2681       0    2   1.0000  5.640096e+00  1.497108e-01 -2.396789e+01  
   2998       0    1   1.9815  1.308583e+01  2.182486e+00 -2.329312e+01   # DC
    378       0    1   1.9815  7.107593e+00  1.284615e+01 -2.920464e+01   # DC
    455       0    4   3.4894  1.580455e+01  6.898679e+00 -2.374820e+01   # DC
    458       0    1   1.9815  2.158935e+00  1.533732e+01 -2.964046e+01   # DC
   1339       0    4   3.4894  9.590776e+00  8.315445e-01 -2.830066e+01   # DC
   2272       0    1   1.9815  1.324203e+01  3.797265e+00 -2.875753e+01   # DC
   1503       0    4   3.4894  7.202792e+00  1.216845e+00 -2.623080e+01   # DC
   2449       0    2   1.0000  1.169584e+01  1.348641e+01 -2.813928e+01  
   1545       0    2   1.0000  2.738747e+00  1.323667e+00 -2.353915e+01  
   2927       0    2   1.0000  1.683843e+00  7.402054e+00 -2.695411e+01  
   3338       0    1   1.9815  1.354814e+00  8.949736e+00 -2.905237e+01   # DC
   1904       0    1   1.9815  3.312545e+00  1.240216e+01 -2.941755e+01   # DC
   1959       0    2   1.0000  1.255677e+01  7.009352e+00 -2.845403e+01  
   3385       0    3   2.0065  1.524708e+01  1.555834e+01 -2.723284e+01   # DC
   1053       0    4   3.4894  5.372413e+00  1.152845e+01 -2.788286e+01   # DC
    250       0    1   1.9815  6.017039e+00  1.288015e+01 -2.561914e+01   # DC
   2465       0    2   1.0000  1.331520e+01  1.326114e+01 -2.319482e+01  
   1893       0    2   1.0000  1.169381e+01  2.583049e+00 -2.382526e+01  
   3380       0    1   1.9815  1.583530e+01  5.517434e+00 -2.701677e+01   # DC
   2548       0    1   1.9815  1.295348e+01  1.289367e+01 -2.562102e+01   # DC
   1131       0    4   3.4894  4.466426e+00  1.102621e+01 -2.418798e+01   # DC
   2866       0    1   1.9815  2.400064e+00  3.965974e+00 -2.418513e+01   # DC
   1554       0    1   1.9815  1.324303e+01  1.500287e+01 -2.792403e+01   # DC
    558       0    1   1.9815  1.032667e+01  1.294897e+01 -2.721433e+01   # DC
   3489       0    3   2.0065  5.587259e+00  3.854812e+00 -2.992620e+01   # DC
   2086       0    1   1.9815  9.353814e-01  9.177322e-01 -2.706045e+01   # DC
   1822       0    1   1.9815  1.601086e+01  1.304132e+01 -2.725275e+01   # DC
   3239       0    3   2.0065  2.585431e+00  1.117704e+01 -2.769923e+01   # DC
   1488       0    1   1.9815  4.392478e+00  3.861761e-01 -2.911222e+01   # DC
    189       0    4   3.4894  6.285598e+00  8.259496e+00 -2.707575e+01   # DC
   2165       0    2   1.0000  6.881407e+00  1.453696e+01 -2.601005e+01  
   3213       0    3   2.0065  6.541483e+00  1.342823e+01 -2.281237e+01   # DC
   3588       0    1   1.9815  1.165650e+01  1.375020e+01 -2.372114e+01   # DC
   2042       0    1   1.9815  1.430167e+01  1.169731e+01 -2.304434e+01   # DC
   3211       0    3   2.0065  6.076487e+00  5.088233e+00 -2.689897e+01   # DC
   1874       0    1   1.9815  6.804955e+00  1.050457e+01 -2.404451e+01   # DC
     15       0    4   3.4894  4.506894e+00  1.607097e+01 -2.950670e+01   # DC
    977       0    4   3.4894  1.495821e+01  1.102754e+00 -2.959422e+01   # DC
   3051       0    2   1.0000  6.873792e+00  4.330010e+00 -2.425061e+01  
   2175       0    2   1.0000  1.091869e+01  7.648544e+00 -2.648303e+01  
   2808       0    1   1.9815  3.883318e+00  9.168024e+00 -2.749480e+01   # DC
     83       0    4   3.4894  1.279702e+01  1.547219e+01 -2.522935e+01   # DC
   2534       0    1   1.9815  8.682767e+00  1.291727e+01 -2.434733e+01   # DC
   1202       0    1   1.9815  4.346513e+00  4.339974e+00 -2.799097e+01   # DC
   3494       0    1   1.9815  1.548847e+01  9.501213e+00 -2.508035e+01   # DC
   1737       0    2   1.0000  6.823262e-01  2.799217e+00 -2.821311e+01  
   2324       0    1   1.9815  6.418966e-01  1.423419e+01 -2.406782e+01   # DC
   1931       0    2   1.0000  1.334317e+01  1.571956e+01 -2.952971e+01  
   2033       0    2   1.0000  1.434107e+01  1.257057e+01 -2.681125e+01  
   2664       0    1   1.9815  1.454856e+01  7.450641e+00 -2.829018e+01   # DC
   3308       0    1   1.9815  1.539501e+01  1.571705e+01 -2.481341e+01   # DC
   3127       0    2   1.0000  1.483174e+00  1.396267e+01 -2.563886e+01  
   3137       0    2   1.0000  1.450571e+01  7.925238e-01 -2.315505e+01  
   1816       0    1   1.9815  3.128883e+00  1.470310e+01 -2.497966e+01   # DC
   3362       0    1   1.9815  6.569085e+00  6.226746e+00 -2.854908e+01   # DC
    683       0    4   3.4894  3.436654e+00  1.447432e+01 -2.749698e+01   # DC
    336       0    1   1.9815  4.604050e+00  1.732538e+00 -2.435874e+01   # DC
   2390       0    1   1.9815  2.027979e+00  6.829954e+00 -2.508439e+01   # DC
   1210       0    1   1.9815  1.189124e+01  6.217771e+00 -2.678905e+01   # DC
   1986       0    1   1.9815  4.825872e+00  5.409734e+00 -2.483984e+01   # DC
   2703       0    2   1.0000  1.581589e+01  6.976297e+00 -2.759033e+01  
   2302       0    1   1.9815  7.292110e+00  9.978367e-01 -2.340668e+01   # DC
   2773       0    2   1.0000  7.714027e+00  1.143466e+01 -2.545825e+01  
   2254       0    1   1.9815  1.010366e+00  4.215353e+00 -2.714537e+01   # DC
   2205       0    2   1.0000  4.546776e+00  1.421555e+01 -2.434000e+01  
   1140       0    1   1.9815  5.759214e+00  1.536693e+01 -2.743814e+01   # DC
   3235       0    3   2.0065  1.349656e+01  9.888360e+00 -2.857136e+01   # DC
   2793       0    2   1.0000  1.519513e+01  4.557182e+00 -2.899924e+01  
   2082       0    1   1.9815  6.643858e+00  1.517563e+01 -2.412435e+01   # DC
   1868       0    1   1.9815  7.489320e+00  1.060051e+01 -2.689435e+01   # DC
   1265       0    4   3.4894  1.365544e+01  4.228426e+00 -2.607305e+01   # DC
   1901       0    2   1.0000  1.536038e+01  1.061755e+01 -2.355254e+01  
     87       0    4   3.4894  1.019519e+01  4.558383e+00 -2.625337e+01   # DC
   2515       0    2   1.0000  3.129701e+00  8.104633e+00 -2.898478e+01  
    728       0    1   1.9815  1.343510e+01  1.223313e+01 -2.864481e+01   # DC
   1638       0    1   1.9815  7.756507e+00  4.040405e+00 -2.561544e+01   # DC
   3345       0    3   2.0065  2.723167e+00  4.883982e+00 -2.618133e+01   # DC
   1941       0    2   1.0000  1.099467e+01  1.226738e+01 -2.517784e+01  
   2148       0    1   1.9815  1.148291e+01  2.199869e+00 -2.545323e+01   # DC
   1688       0    1   1.9815  1.026423e+01  3.410140e+00 -2.858581e+01   # DC
   3046       0    1   1.9815  9.348746e+00  7.073298e+00 -2.619516e+01   # DC
   2472       0    1   1.9815  6.989188e+00  1.328764e+00 -2.891568e+01   # DC
   3386       0    1   1.9815  9.358738e-01  1.367311e+01 -2.725925e+01   # DC
    627       0    4   3.4894  9.920354e+00  1.067469e+01 -2.757260e+01   # DC
   1558       0    1   1.9815  2.496397e+00  1.189927e+01 -2.536415e+01   # DC
   2984       0    1   1.9815  1.217534e+01  8.694770e+00 -2.756171e+01   # DC
    121       0    4   3.4894  2.589765e-01  1.066250e+01 -2.474975e+01   # DC
   2792       0    1   1.9815  1.062003e+01  1.000450e+01 -2.510055e+01   # DC
   1841       0    2   1.0000  1.223630e+01  5.282930e+00 -2.290028e+01  
    123       0    4   3.4894  1.285025e+01  9.479753e+00 -2.469171e+01   # DC
   3264       0    1   1.9815  1.368979e+01  5.594949e+00 -2.376105e+01   # DC
   3296       0    1   1.9815  2.249539e+00  2.883456e+00 -2.944033e+01   # DC
   1397       0    4   3.4894  9.319845e+00  1.483051e+01 -2.333907e+01   # DC
   2277       0    2   1.0000  1.601816e+01  1.116942e+00 -2.616805e+01  
   3585       0    3   2.0065  1.071044e-01  6.011083e+00 -2.412344e+01   # DC
    648       0    1   1.9815  1.082167e+01  4.045941e+00 -2.369237e+01   # DC
    132       0    1   1.9815  2.465280e+00  6.373888e+00 -2.826286e+01   # DC
   2471       0    2   1.0000  1.568677e+01  1.301499e+01 -2.916982e+01  
    415       0    4   3.4894  9.417815e+00  5.942816e+00 -2.880836e+01   # DC
   2237       0    2   1.0000  1.090442e+00  5.595090e+00 -2.836700e+01  
   1855       0    2   1.0000  4.279103e+00  3.536955e+00 -2.360325e+01  
   2279       0    2   1.0000  2.267329e+00  1.306790e+01 -2.293633e+01  
   2413       0    2   1.0000  1.302888e+00  3.553810e+00 -2.286288e+01  
   2160       0    1   1.9815  4.096792e+00  1.308283e+01 -2.291248e+01   # DC
   1913       0    2   1.0000  1.611634e+01  9.817812e+00 -2.669055e+01  
     37       0    4   3.4894  3.307807e+00  6.317676e+00 -2.319471e+01   # DC
   2974       0    1   1.9815  1.217926e+01  8.324039e-01 -2.820261e+01   # DC
   3016       0    1   1.9815  7.270731e+00  5.867270e+00 -2.289821e+01   # DC
   2130       0    1   1.9815  1.470811e+01  2.602756e-01 -2.492835e+01   # DC
    557       0    4   3.4894  9.483212e+00  1.120250e+01 -2.268817e+01   # DC
   1415       0    4   3.4894  1.136701e+01  2.326917e-01 -2.372919e+01   # DC
   2884       0    1   1.9815  1.403263e+00  3.572079e-01 -2.373685e+01   # DC
   3246       0    1   1.9815  1.429502e+00  6.785405e+00 -1.689427e+01   # DC
   2956       0    1   1.9815  9.097781e+00  1.426028e+01 -1.678152e+01   # DC
   2230       0    1   1.9815  7.439640e+00  2.630856e+00 -2.126941e+01   # DC
   1366       0    1   1.9815  1.319850e+00  1.154936e+01 -2.234712e+01   # DC
   1549       0    2   1.0000  8.072976e+00  1.608192e+01 -1.582757e+01  
    385       0    4   3.4894  1.972138e-01  1.165468e+01 -2.034944e+01   # DC
   2458       0    1   1.9815  7.496382e+00  3.779432e+00 -1.675591e+01   # DC
   2622       0    1   1.9815  1.410863e+01  1.456118e+01 -2.246276e+01   # DC
   2212       0    1   1.9815  1.198636e+01  1.736158e-01 -1.502209e+01   # DC
    966       0    1   1.9815  9.916805e+00  1.133336e+01 -1.809529e+01   # DC
   1247       0    4   3.4894  1.209320e+01  2.284952e+00 -1.775267e+01   # DC
   1881       0    2   1.0000  5.911985e+00  1.127258e+01 -1.707199e+01  
   1722       0    1   1.9815  3.085873e+00  1.606365e+01 -1.832100e+01   # DC
   2157       0    2   1.0000  1.140366e+01  1.194979e+01 -1.929123e+01  
   1970       0    1   1.9815  8.094273e+00  1.477848e+01 -2.125052e+01   # DC
    604       0    1   1.9815  1.613867e+01  1.154210e+01 -2.009844e+01   # DC
     71       0    4   3.4894  1.362277e+01  1.102091e+01 -2.076597e+01   # DC
   2357       0    2   1.0000  6.708883e+00  1.004722e+01 -2.211145e+01  
   1456       0    1   1.9815  1.152600e+01  1.332006e+01 -1.577103e+01   # DC
   2693       0    2   1.0000  1.188544e+01  5.579044e+00 -1.997266e+01  
   3038       0    1   1.9815  9.805344e+00  1.596281e+00 -1.763705e+01   # DC
   3036       0    1   1.9815  5.593953e+00  1.416611e+01 -2.021800e+01   # DC
   1459       0    4   3.4894  6.459978e+00  7.335820e+00 -2.081677e+01   # DC
    524       0    1   1.9815  4.835197e+00  9.312985e+00 -2.220541e+01   # DC
    987       0    4   3.4894  3.244042e+00  1.382124e+01 -1.887379e+01   # DC
   1176       0    1   1.9815  1.393543e+01  4.765415e+00 -2.042365e+01   # DC
   1814       0    1   1.9815  1.622843e+01  8.021810e+00 -1.868049e+01   # DC
   2990       0    1   1.9815  1.274230e+01  1.145152e+01 -1.831633e+01   # DC
   1284       0    1   1.9815  8.253743e+00  8.974150e+00 -2.147315e+01   # DC
    201       0    4   3.4894  4.917150e+00  1.177264e+01 -2.030146e+01   # DC
   1751       0    2   1.0000  7.299772e+00  1.347735e+01 -2.012032e+01  
   2802       0    1   1.9815  7.726441e+00  4.980224e+00 -1.949635e+01   # DC
   2480       0    1   1.9815  1.823656e+00  3.475216e+00 -1.867679e+01   # DC
   2124       0    1   1.9815  5.882081e+00  6.365512e+00 -1.640014e+01   # DC
   1152       0    1   1.9815  1.192594e+01  6.453806e+00 -2.166288e+01   # DC
   1441       0    4   3.4894  1.379709e+01  8.599500e+00 -1.739164e+01   # DC
   2918       0    1   1.9815  1.585636e+01  9.225610e+00 -1.506794e+01   # DC
   2073       0    2   1.0000  1.581389e+01  3.688354e+00 -1.581072e+01  
   2113       0    2   1.0000  1.153942e+01  1.164319e+01 -1.644947e+01  
   1612       0    1   1.9815  1.240242e+01  1.397328e+01 -1.980183e+01   # DC
    658       0    1   1.9815  7.188799e+00  1.227656e+01 -1.858203e+01   # DC
   2083       0    2   1.0000  1.533356e+01  1.520113e+01 -2.169359e+01  
    115       0    4   3.4894  1.655524e+00  1.313707e+00 -1.996983e+01   # DC
    656       0    1   1.9815  2.391463e+00  2.192306e+00 -2.199733e+01   # DC
   3037       0    2   1.0000  2.441521e+00  1.057306e+01 -1.786954e+01  
   3179       0    3   2.0065  8.207605e+00  1.036159e+01 -1.921361e+01   # DC
   1464       0    1   1.9815  1.079100e+01  4.322106e+00 -1.946598e+01   # DC
   2457       0    2   1.0000  9.151917e-01  6.676058e+00 -2.111877e+01  
    958       0    1   1.9815  6.313894e+00  1.276937e+01 -1.607411e+01   # DC
   2282       0    1   1.9815  7.171479e+00  1.134686e+01 -2.116551e+01   # DC
    229       0    4   3.4894  1.322183e+01  5.177118e+00 -1.504624e+01   # DC
   2783       0    2   1.0000  6.482187e+00  4.199592e+00 -2.093025e+01  
   1458       0    1   1.9815  7.663282e+00  8.152847e+00 -1.860038e+01   # DC
   1298       0    1   1.9815  5.365597e+00  3.094594e+00 -1.931250e+01   # DC
   3106       0    1   1.9815  1.766442e+00  1.187869e+01 -1.858523e+01   # DC
    291       0    4   3.4894  9.309676e+00  5.871623e+00 -1.782707e+01   # DC
   1258       0    1   1.9815  3.606762e+00  4.796181e+00 -1.744132e+01   # DC
   1455       0    4   3.4894  1.171730e+01  4.083698e-01 -2.051319e+01   # DC
   2013       0    2   1.0000  1.485598e+00  7.968887e+00 -1.563252e+01  
     29       0    4   3.4894  5.573909e+00  1.460252e+00 -2.156086e+01   # DC
   3268       0    1   1.9815  1.115004e+01  1.109752e+01 -2.048738e+01   # DC
    567       0    4   3.4894  1.128775e+01  1.529127e+01 -1.751327e+01   # DC
   1452       0    1   1.9815  1.420390e+01  3.000488e+00 -1.597790e+01   # DC
    590       0    1   1.9815  1.228081e+00  4.920705e+00 -2.177485e+01   # DC
    457       0    4   3.4894  5.939476e-01  2.535221e+00 -1.622496e+01   # DC
    274       0    1   1.9815  4.336943e+00  1.102608e+01 -1.803252e+01   # DC
   2696       0    1   1.9815  4.697567e+00  6.018192e-01 -1.572359e+01   # DC
   1681       0    2   1.0000  1.252315e+01  1.490899e+01 -2.112200e+01  
    345       0    4   3.4894  1.481726e+01  2.799652e+00 -1.874054e+01   # DC
   3150       0    1   1.9815  5.103140e+00  4.255722e+00 -2.234815e+01   # DC
   1594       0    1   1.9815  1.415685e+01  8.812519e+00 -2.214233e+01   # DC
   1363       0    4   3.4894  1.448927e+01  7.045162e+00 -2.040387e+01   # DC
   1173       0    4   3.4894  2.420775e+00  9.228290e+00 -2.137968e+01   # DC
    619       0    4   3.4894  7.677815e+00  2.498540e+00 -1.883527e+01   # DC
    869       0    4   3.4894  3.268274e+00  4.399916e+00 -2.039470e+01   # DC
   1826       0    1   1.9815  1.373152e+01  6.967421e-01 -1.832558e+01   # DC
   1649       0    2   1.0000  2.327588e+00  5.644377e+00 -1.814490e+01  
   2343       0    2   1.0000  6.376573e+00  8.069155e+00 -1.690076e+01  
    309       0    4   3.4894  3.017905e+00  1.606553e+01 -2.076898e+01   # DC
   2093       0    2   1.0000  8.504189e+00  1.284182e+01 -1.742733e+01  
    335       0    4   3.4894  1.118490e+01  8.686428e+00 -2.057287e+01   # DC
   1658       0    1   1.9815  1.237287e+01  7.143511e+00 -1.885096e+01   # DC
   3431       0    3   2.0065  6.116307e+00  4.740043e+00 -1.813312e+01   # DC
   1323       0    4   3.4894  9.729950e+00  4.346501e+00 -2.143131e+01   # DC
   3286       0    1   1.9815  6.252577e+00  9.815237e+00 -1.598606e+01   # DC
   2270       0    1   1.9815  5.962882e-01  9.792071e+00 -1.676306e+01   # DC
   1017       0    4   3.4894  1.458424e+01  1.325232e+01 -1.858042e+01   # DC
   2530       0    1   1.9815  2.079462e+00  7.531265e+00 -1.984607e+01   # DC
   2952       0    1   1.9815  1.599460e+01  1.281994e+01 -1.607113e+01   # DC
   3408       0    1   1.9815  1.919469e+00  1.388579e+01 -2.123561e+01   # DC
   3328       0    1   1.9815  1.555530e+01  1.510566e+01 -1.987313e+01   # DC
   1460       0    1   1.9815  1.563183e+00  4.220972e-01 -1.738662e+01   # DC
   3031       0    2   1.0000  8.532313e+00  1.230961e+00 -2.224406e+01  
   1489       0    4   3.4894  4.023859e+00  2.526646e+00 -1.690186e+01   # DC
   1886       0    1   1.9815  1.042832e+01  1.806203e+00 -2.225309e+01   # DC
   1763       0    2   1.0000  6.319724e+00  4.963766e+00 -1.526940e+01  
   3485       0    3   2.0065  2.340429e+00  3.589391e-02 -1.522626e+01   # DC
   3311       0    3   2.0065  5.215856e-02  4.177724e+00 -1.939102e+01   # DC
   3537       0    3   2.0065  9.198810e+00  2.850132e+00 -1.522640e+01   # DC
    292       0    1   1.9815  1.599174e+01  1.376869e+00 -2.247639e+01   # DC
   3078       0    1   1.9815  1.238214e+01  1.092360e+01 -1.505547e+01   # DC
   2446       0    1   1.9815  1.098759e+01  4.465152e+00 -1.543693e+01   # DC
   1329       0    4   3.4894  6.658200e-02  1.380173e+01 -1.780113e+01   # DC
   2415       0    2   1.0000  5.721665e+00  1.404291e+01 -1.517734e+01  
    862       0    1   1.9815  6.301875e-01  7.785339e+00 -2.247060e+01   # DC
   1473       0    4   3.4894  1.471174e+01  3.996610e+00 -2.242187e+01   # DC
    431       0    4   3.4894  9.830101e+00  1.238597e+01 -9.315073e+00   # DC
   2863       0    2   1.0000  1.390927e+01  9.365872e+00 -1.451913e+01  
   1241       0    4   3.4894  5.508850e+00  8.097618e+00 -1.385119e+01   # DC
   3101       0    2   1.0000  1.468503e+01  1.387362e+01 -1.165253e+01  
   3164       0    1   1.9815  6.089764e+00  1.129620e+01 -9.264014e+00   # DC
    572       0    1   1.9815  5.628533e+00  1.072027e+01 -1.236358e+01   # DC
   3330       0    1   1.9815  1.491605e+01  7.709733e-01 -1.303548e+01   # DC
   2794       0    1   1.9815  2.533825e+00  1.525603e+01 -9.811276e+00   # DC
    500       0    1   1.9815  3.504088e-01  7.998581e+00 -1.408676e+01   # DC
   2796       0    1   1.9815  2.247520e+00  5.241269e+00 -1.256043e+01   # DC
   3152       0    1   1.9815  1.767641e+00  9.269423e+00 -8.456246e+00   # DC
   1727       0    2   1.0000  7.313925e+00  4.696868e+00 -1.319353e+01  
   2506       0    1   1.9815  1.325897e+01  1.298096e+01 -1.146036e+01   # DC
   2608       0    1   1.9815  9.463502e+00  1.007462e+01 -1.266450e+01   # DC
   1013       0    4   3.4894  1.364253e+01  1.327148e+01 -1.481884e+01   # DC
   2104       0    1   1.9815  5.942356e+00  9.856882e-01 -1.229324e+01   # DC
   1825       0    2   1.0000  3.038294e+00  1.326241e+01 -1.068371e+01  
   1864       0    1   1.9815  1.425706e+01  3.970559e+00 -1.079575e+01   # DC
   2244       0    1   1.9815  9.376696e+00  7.159831e-01 -1.444585e+01   # DC
   1199       0    4   3.4894  7.776416e+00  1.012893e+01 -1.079622e+01   # DC
   1920       0    1   1.9815  6.029073e+00  5.918854e+00 -8.270383e+00   # DC
   1437       0    4   3.4894  9.938024e+00  6.592355e-01 -1.050391e+01   # DC
   1908       0    1   1.9815  1.255941e+01  6.762423e-01 -1.083358e+01   # DC
    308       0    1   1.9815  1.058530e+01  1.589226e+01 -1.415000e+01   # DC
   2937       0    2   1.0000  1.954727e-01  1.317347e+01 -1.148899e+01  
   2391       0    2   1.0000  1.828407e+00  1.466114e+01 -1.355182e+01  
   2549       0    2   1.0000  1.262745e+01  7.619736e+00 -1.283750e+01  
    887       0    4   3.4894  6.813114e-01  1.344182e+01 -7.982144e+00   # DC
    855       0    4   3.4894  7.981001e+00  3.654936e+00 -8.537582e+00   # DC
   1107       0    4   3.4894  1.396047e+01  8.967833e+00 -1.026319e+01   # DC
   1750       0    1   1.9815  1.531230e+01  7.315650e+00 -1.225197e+01   # DC
   2954       0    1   1.9815  3.642594e+00  2.565597e+00 -1.164520e+01   # DC
    741       0    4   3.4894  1.610198e+01  2.203214e+00 -1.130558e+01   # DC
   1620       0    1   1.9815  4.811923e+00  1.369341e+01 -1.088295e+01   # DC
    781       0    4   3.4894  1.718726e+00  8.326953e+00 -1.229209e+01   # DC
    584       0    1   1.9815  1.198493e+01  7.661297e+00 -1.030655e+01   # DC
   2399       0    2   1.0000  1.066586e+00  1.578801e+01 -1.056201e+01  
    438       0    1   1.9815  1.052404e+01  1.622798e+01 -1.132842e+01   # DC
    993       0    4   3.4894  4.046910e+00  1.427542e+01 -8.002789e+00   # DC
   1424       0    1   1.9815  1.123892e+01  1.354742e+01 -7.883248e+00   # DC
   1048       0    1   1.9815  1.406090e+01  1.501808e+01 -1.297039e+01   # DC
    939       0    4   3.4894  5.479340e+00  2.167103e+00 -9.868438e+00   # DC
    631       0    4   3.4894  3.745097e+00  1.032237e+01 -1.379428e+01   # DC
    176       0    1   1.9815  5.466239e+00  1.616665e+01 -9.286107e+00   # DC
   3081       0    2   1.0000  2.464994e+00  2.728383e+00 -8.317321e+00  
   2108       0    1   1.9815  9.572908e+00  1.332090e+01 -1.291845e+01   # DC
    105       0    4   3.4894  8.895443e+00  7.469035e+00 -1.341560e+01   # DC
   1567       0    2   1.0000  2.508204e+00  9.845793e-01 -1.141809e+01  
   1132       0    1   1.9815  1.485505e+01  1.523725e+01 -1.010952e+01   # DC
   3174       0    1   1.9815  6.394782e+00  4.150602e+00 -1.111791e+01   # DC
   3086       0    1   1.9815  4.468473e-01  6.933733e-02 -1.388567e+01   # DC
    589       0    4   3.4894  4.746890e+00  9.456250e+00 -1.018969e+01   # DC
   3348       0    1   1.9815  2.416305e+00  1.204473e+01 -9.585614e+00   # DC
   1720       0    1   1.9815  1.539330e+01  4.722746e+00 -1.384962e+01   # DC
   2846       0    1   1.9815  6.706881e+00  6.168181e+00 -1.348669e+01   # DC
   3366       0    1   1.9815  1.008861e+00  1.907380e+00 -1.102194e+01   # DC
   2757       0    2   1.0000  1.489321e+01  5.532434e+00 -1.224514e+01  
   2603       0    2   1.0000  6.671562e+00  1.081835e+01 -7.811867e+00  
   3226       0    1   1.9815  1.813003e+00  1.369906e+01 -1.200637e+01   # DC
   1944       0    1   1.9815  1.150133e+01  3.604257e+00 -1.228046e+01   # DC
   2482       0    1   1.9815  7.912590e+00  1.553473e+01 -1.112257e+01   # DC
   2137       0    2   1.0000  2.151887e+00  3.459159e+00 -1.205140e+01  
   2819       0    2   1.0000  1.509989e+01  4.385116e+00 -9.346244e+00  
   3403       0    3   2.0065  1.142260e+01  1.435846e+01 -1.205556e+01   # DC
   1586       0    1   1.9815  1.357865e+01  9.488446e+00 -1.283602e+01   # DC
   3370       0    1   1.9815  7.744010e+00  1.290727e+01 -1.051617e+01   # DC
    655       0    4   3.4894  6.887795e+00  1.117804e-01 -1.475614e+01   # DC
   1025       0    4   3.4894  4.203108e+00  5.266504e+00 -1.090540e+01   # DC
    625       0    4   3.4894  1.185692e+01  1.126453e+01 -1.267884e+01   # DC
   3290       0    1   1.9815  6.048140e+00  3.441279e+00 -1.424409e+01   # DC
   3540       0    1   1.9815  2.149279e+00  2.666223e+00 -1.438988e+01   # DC
   1607       0    2   1.0000  1.089823e+01  4.758135e+00 -1.368272e+01  
   1712       0    1   1.9815  8.687285e+00  4.747569e+00 -1.397410e+01   # DC
   1022       0    1   1.9815  3.083457e+00  8.401121e+00 -1.498180e+01   # DC
   2610       0    1   1.9815  8.096273e+00  1.193140e+00 -8.744528e+00   # DC
    416       0    1   1.9815  3.757568e+00  1.671410e+00 -8.169389e+00   # DC
   1125       0    4   3.4894  1.274741e+01  2.804085e+00 -9.937106e+00   # DC
   2748       0    1   1.9815  1.370645e+00  1.061228e+01 -1.243788e+01   # DC
    850       0    1   1.9815  1.322263e+01  7.739003e+00 -1.480515e+01   # DC
   2162       0    1   1.9815  9.425135e+00  5.620344e+00 -9.176806e+00   # DC
   2585       0    2   1.0000  7.437163e+00  6.485780e+00 -9.458510e+00  
   2897       0    2   1.0000  7.763808e+00  1.387198e+01 -1.213831e+01  
   2615       0    2   1.0000  5.755354e+00  1.223028e+01 -1.103930e+01  
   3553       0    3   2.0065  1.255270e+01  1.458699e+01 -9.134240e+00   # DC
   1070       0    1   1.9815  6.283751e+00  1.367935e+01 -1.320250e+01   # DC
    843       0    4   3.4894  4.736000e+00  1.560290e+01 -1.280956e+01   # DC
   3251       0    3   2.0065  1.134424e+01  5.483219e+00 -1.031720e+01   # DC
   1672       0    1   1.9815  3.559565e+00  1.474670e+01 -1.498306e+01   # DC
     35       0    4   3.4894  3.301645e+00  5.491891e+00 -1.484595e+01   # DC
   2092       0    1   1.9815  1.153128e+01  6.189865e+00 -1.313373e+01   # DC
   3232       0    1   1.9815  2.160558e+00  4.375845e+00 -8.639273e+00   # DC
   3528       0    1   1.9815  4.001215e+00  7.661195e+00 -1.179133e+01   # DC
   2239       0    2   1.0000  5.437547e+00  2.359271e+00 -1.269354e+01  
   1091       0    4   3.4894  7.993424e+00  1.124184e+01 -1.441054e+01   # DC
   3355       0    3   2.0065  8.645904e-01  1.054393e+01 -1.039275e+01   # DC
   1221       0    4   3.4894  1.093501e+01  8.703009e+00 -7.658314e+00   # DC
   1077       0    4   3.4894  1.235062e+01  1.739600e+00 -1.328964e+01   # DC
   2203       0    2   1.0000  6.465397e+00  1.471313e+01 -1.009646e+01  
   3414       0    1   1.9815  6.864927e+00  7.782780e+00 -1.031923e+01   # DC
    399       0    4   3.4894  1.594859e+01  9.858865e+00 -1.229036e+01   # DC
   1166       0    1   1.9815  5.461937e-01  2.304212e+00 -7.630215e+00   # DC
    873       0    4   3.4894  1.755635e+00  6.705765e+00 -8.000181e+00   # DC
   2490       0    1   1.9815  8.513095e+00  1.083554e+01 -7.967388e+00   # DC
    502       0    1   1.9815  6.821525e+00  1.615323e+01 -1.466889e+01   # DC
   1685       0    2   1.0000  1.025916e+01  1.434076e+01 -1.487254e+01  
    248       0    1   1.9815  1.612541e+01  3.024239e+00 -8.905485e+00   # DC
    682       0    1   1.9815  6.299066e-01  1.414810e+01 -1.477527e+01   # DC
   2523       0    2   1.0000  1.046806e+00  9.943354e+00 -5.779515e+00  
   2666       0    1   1.9815  8.744498e+00  7.171814e+00 -6.780486e+00   # DC
   1645       0    2   1.0000  8.896276e+00  1.221352e+01 -5.949585e+00  
   3349       0    3   2.0065  1.144565e+01  1.003549e+01 -3.850829e+00   # DC
   2699       0    2   1.0000  1.192190e+01  1.251999e+01 -6.495679e+00  
   1639       0    2   1.0000  6.262717e+00  7.534405e+00 -6.677751e+00  
   2112       0    1   1.9815  4.410864e+00  4.635672e+00 -2.499453e+00   # DC
     63       0    4   3.4894  7.262904e+00  1.093805e+01 -1.461396e+00   # DC
   3359       0    3   2.0065  1.015355e+01  6.060224e+00 -4.779278e+00   # DC
   1856       0    1   1.9815  1.067919e+01  8.282682e+00 -4.794058e+00   # DC
   2225       0    2   1.0000  1.173109e+01  1.543733e+01 -3.839102e+00  
   2396       0    1   1.9815  1.070329e+01  4.414352e+00 -3.392809e+00   # DC
    157       0    4   3.4894  1.648705e+00  1.308675e+01 -4.555947e+00   # DC
   2907       0    2   1.0000  1.363904e+01  1.476994e+01 -4.221742e+00  
   1060       0    1   1.9815  2.690086e+00  7.058597e+00 -2.494164e+00   # DC
   1745       0    2   1.0000  7.786578e+00  3.387193e+00 -5.726897e+00  
   2251       0    2   1.0000  1.167883e+01  4.107926e+00 -6.532719e+00  
   1797       0    2   1.0000  2.673552e+00  5.255433e+00 -3.105842e+00  
    547       0    4   3.4894  6.213623e+00  6.685252e+00 -2.820115e+00   # DC
    280       0    1   1.9815  1.246202e+01  1.443435e+01 -5.545365e+00   # DC
   2522       0    1   1.9815  8.346345e+00  1.835125e+00 -4.062742e+00   # DC
   3289       0    3   2.0065  7.202714e+00  1.494933e+01 -3.176233e+00   # DC
   1767       0    2   1.0000  7.582240e+00  5.786863e-01 -3.516672e+00  
   3133       0    2   1.0000  9.604496e+00  4.183575e+00 -2.094951e+00  
   2097       0    2   1.0000  4.165457e-01  1.353065e+01 -1.175528e+00  
   1447       0    4   3.4894  1.303519e+01  1.098122e+00 -5.945982e+00   # DC
   1005       0    4   3.4894  1.336772e+01  8.072968e+00 -2.740607e+00   # DC
   1585       0    2   1.0000  3.752941e+00  7.804453e+00 -4.815156e+00  
    780       0    1   1.9815  1.271076e+01  3.044405e+00 -7.369287e+00   # DC
   2483       0    2   1.0000  7.798697e+00  1.157258e+00 -1.181340e+00  
   1163       0    4   3.4894  8.842736e+00  9.505001e+00 -5.690698e+00   # DC
   1964       0    1   1.9815  1.150728e+01  5.755984e+00 -6.983670e+00   # DC
   3446       0    1   1.9815  1.301055e+00  1.147714e+01 -6.716891e+00   # DC
   3549       0    3   2.0065  1.262619e+01  4.591360e+00 -3.009098e+00   # DC
   3346       0    1   1.9815  1.307855e+01  2.416036e+00 -4.069670e+00   # DC
    768       0    1   1.9815  1.347461e+01  1.015948e+01 -4.195929e+00   # DC
   3020       0    1   1.9815  5.784655e+00  1.198418e+01 -6.643635e+00   # DC
   2330       0    1   1.9815  1.253181e+01  1.378755e+01 -3.079334e+00   # DC
   2032       0    1   1.9815  1.591382e+01  1.143264e+01 -2.736019e-01   # DC
    198       0    1   1.9815  5.733443e+00  1.461564e+01 -4.995909e+00   # DC
   1982       0    1   1.9815  1.041056e+01  1.131621e+01 -5.443091e+00   # DC
   3300       0    1   1.9815  9.247655e+00  4.012341e+00 -6.516610e+00   # DC
   2586       0    1   1.9815  5.819917e+00  1.604657e+01 -1.518059e+00   # DC
   1655       0    2   1.0000  3.176010e-01  4.184016e+00 -1.271016e+00  
   2161       0    2   1.0000  2.940808e+00  1.203609e+01 -1.194994e+00  
   1667       0    2   1.0000  2.799981e+00  1.026286e+01 -2.887891e+00  
   3261       0    3   2.0065  1.058414e+01  1.527193e+01 -6.536056e+00   # DC
   3440       0    1   1.9815  3.472766e+00  9.653141e+00 -4.909940e+00   # DC
   2539       0    2   1.0000  1.069417e+01  9.945417e+00 -5.896515e-01  